# ------------- CARBON (Graphite) ----------- #
Name: Carbon
Z: 6				            # Atomic Number
Am: 12.0107    			            # Atomic Mass
Density: 1.3       		            # [g/cm3] Density
MeltingPoint: 3773   		            # [K]
WorkFunction: 4.39   		            # [eV]
Emissivity: 0.8			            #  
SpecificHeat: 0.709     	            # [J/gK]
Conductivity: 91.3      	            # [W/mK]
ExpansionCoeff: 5e-6		            # [1/K]
Sublimation_C1: 12.4		            # [-]
Sublimation_C2: 40.03e+3	            # [-]
Sublimation_Heat: 715e+3                    # [J/mol]
